[Molden Format]
[GEOCONV]
energy
      0.000000
[GEOMETRIES] XYZ
    4
FINAL HEAT OF FORMATION =     0.000000
 N     0.500000     0.000000    -1.200000
 N    -0.500000    -0.000000    -1.200000
 N     0.000000     0.500000     1.200000
 N     0.000000    -0.500000     1.200000
