[Molden Format]
[Molpro variables]
_NUMVAR=  669.0000000000000    
_PATCHLEVEL=  669.0000000000000    
_EV2006= 0.3674930886769165E-01
_EV= 0.3674932534394180E-01
_KJOULE= 0.3808798324128737E-03
_KJOULE/MOL= 0.3808798324128737E-03
_CM= 0.4556335267302901E-05
_CM-1= 0.4556335267302901E-05
_KCAL= 0.1593601117815568E-02
_KCAL/MOL= 0.1593601117815568E-02
_KELVIN2006= 0.3166828861084835E-05
_KELVIN= 0.3166814820820034E-05
_HERTZ2006= 0.1519829850815779E-15
_HERTZ= 0.1519829846011223E-15
_HZ2006= 0.1519829850815779E-15
_HZ= 0.1519829846011223E-15
_TOA2006= 0.5291772490000000    
_TOA= 0.5291772090000000    
_TOANG2006= 0.5291772490000000    
_TOANG= 0.5291772090000000    
_TORAD= 0.1745329251994330E-01
_TOCM=  219474.6306700000    
_TODEBYE=  2.541580000000000    
_TOEV2006=  27.21139610000000    
_TOEV=  27.21138390000000    
_TOHERTZ2006=  6579683899900000.    
_TOHERTZ=  6579683920700000.    
_TOHZ2006=  6579683899900000.    
_TOHZ=  6579683920700000.    
_TOK2006=  315773.3000000000    
_TOK=  315774.7000000000    
_TOKCAL=  627.5096000000000    
_TOKELVIN2006=  315773.3000000000    
_TOKELVIN=  315774.7000000000    
_TOKJ=  2625.500000000000    
_TOKJOULE=  2625.500000000000    
_ANG2006=  1.889725988578923    
_ANG=  1.889726131421507    
_ANGSTROM2006=  1.889725988578923    
_ANGSTROM=  1.889726131421507    
_IGNORE_UNDEF=  2.000000000000000    
_STRICTCHECK=  0.000000000000000    
_SEW_ONEEL=  0.000000000000000    
_CPPDONE=FALSE
_DKROLL_DONE=  0.000000000000000    
_FOCKDONE=TRUE
_GRADONE=FALSE
_HESSDONE=TRUE
_INTDONE=TRUE
_SCFDONE=TRUE
_MODUL_CUDA=FALSE
_MODUL_SLATER=FALSE
_MODUL_MRCC=FALSE
_MRCC_EXEC=
_FITC_AO_SAVED=FALSE
_FITC_MO_SAVED=FALSE
_SHARED_FS=TRUE
_LSTYP=SEWARD
_INTYP=INTS
_GEOMTYP=ZMAT
_GRADTYP=ALASKA
_DIRECT=FALSE
_DKROLL=FALSE
_DKHO=FALSE
_DKHP=FALSE
_SYNCM=  0.000000000000000    
_DFTNAME=  0.000000000000000    
_DFTFUNC=  0.000000000000000    
_BASIS=6-311G(2D)
_BASISSETS=
_ZSIGNX=
_ZSIGNY=
_ZSIGNZ=
_ZCENTRE=
_ZSYMEL=
_ZPLANE=
_ZUNIT=ANG
_ZORIENT=  1.000000000000000    
_CHARGE=  0.000000000000000    
_SCFCHARGE=  0.000000000000000    
_MCCHARGE=  0.000000000000000    
_CICHARGE=  0.000000000000000    
_CCCHARGE=  0.000000000000000    
_NELEC=  18.00000000000000    
!NELEC=  18.00000000000000    
_SCFNELEC=  18.00000000000000    
_MCNELEC=  18.00000000000000    
_CINELEC=  18.00000000000000    
_CCNELEC=  18.00000000000000    
_SPIN=  18.00000000000000    
!SPIN=  0.000000000000000    
_SCFSPIN=  0.000000000000000    
_MCSPIN=  0.000000000000000    
_CISPIN=  0.000000000000000    
_CCSPIN=  0.000000000000000    
_STATE=  0.000000000000000    
_SCFSTATE=  0.000000000000000    
_MCSTATE=  0.000000000000000    
_CISTATE=  0.000000000000000    
_SYMMETRY=  0.000000000000000    
!SYMMETRY=  0.000000000000000    
_SCFSYMMETRY=  0.000000000000000    
_MCSYMMETRY=  0.000000000000000    
_CISYMMETRY=  0.000000000000000    
_CCSYMMETRY=  0.000000000000000    
_SCFSYMM=  0.000000000000000    
_MCSYMM=  0.000000000000000    
_CISYMM=  0.000000000000000    
_CCSYMM=  0.000000000000000    
_SCFSYM=  0.000000000000000    
_MCSYM=  0.000000000000000    
_CISYM=  0.000000000000000    
_CCSYM=  0.000000000000000    
_WEIGHT=  0.000000000000000    
_MCWEIGHT=  0.000000000000000    
_LQUANT=  0.000000000000000    
_MCLQUANT=  0.000000000000000    
_OPTCONV= 0.1229003109085774E-03
_QSDSTEP=  0.000000000000000    
_QSDIRC=  0.000000000000000    
_PROGRAM=FREQ
_CPUSTEP=  0.000000000000000    
_SYSSTEP=  0.000000000000000    
_WALLSTEP=  0.000000000000000    
!PERT=  0.000000000000000    
!DFMP2=  0.000000000000000    
!DFSCF=  0.000000000000000    
!DFHFENERG=  0.000000000000000    
!SCSGRD=  0.000000000000000    
_ATCHARGE=  0.000000000000000    
_BASINP=  610.0000000000000    
_CARTESIAN=  610.0000000000000    
_CFIT=  610.0000000000000    
_CFIT_FRED=  610.0000000000000    
_CFIT_FRED_THR=  610.0000000000000    
_CHII2=  610.0000000000000    
_CHIRS=  610.0000000000000    
_COEFF=  610.0000000000000    
_CPU2IDX_CFIT=  610.0000000000000    
_CPU3IDX_CFIT=  610.0000000000000    
_CPUASMBL_CFIT=  610.0000000000000    
_CPUBLAS1=  610.0000000000000    
_CPUBLAS2=  610.0000000000000    
_CPUBLAS3=  610.0000000000000    
_CPUINT_DTRAF=  610.0000000000000    
_CPUSOLVE_CFIT=  610.0000000000000    
_CPUTOT=  833.7200000000000    
_CPUTR1_CFIT=  833.7200000000000    
_CPUTR2_CFIT=  833.7200000000000    
_CPUINV_CFIT=  833.7200000000000    
_CPUFIT_CFIT=  833.7200000000000    
_CPUTRANS_CFIT=  833.7200000000000    
_CPUSCREEN_CFIT=  833.7200000000000    
_CPUTRANS_DTRAF=  833.7200000000000    
_CPUTRA_DTRAF=  833.7200000000000    
_CPUTRIPL=  833.7200000000000    
_SYSTRIPL=  833.7200000000000    
_WALLTRIPL=  833.7200000000000    
_CPUCCSD=  0.000000000000000    
_SYSCCSD=  0.000000000000000    
_WALLCCSD=  0.000000000000000    
_CPUSORT=  0.000000000000000    
_SYSSORT=  0.000000000000000    
_WALLSORT=  0.000000000000000    
_CPUF12=  0.000000000000000    
_SYSF12=  0.000000000000000    
_WALLF12=  0.000000000000000    
_CPUF12B=  0.000000000000000    
_SYSF12B=  0.000000000000000    
_WALLF12B=  0.000000000000000    
_CPUTRANS=  0.000000000000000    
_SYSTRANS=  0.000000000000000    
_WALLTRANS=  0.000000000000000    
_DALTON=  0.000000000000000    
_DARW=  0.000000000000000    
_DECAY=  0.000000000000000    
_DELE_CFIT=  0.000000000000000    
_DELG_CFIT=  0.000000000000000    
_DELTA=  0.000000000000000    
_DFTEXFAC=  1.000000000000000    
_DFTFAC=  1.000000000000000    
_DFTFUN=  1.000000000000000    
_DFTFUNS=  1.000000000000000    
_DMEX=  1.000000000000000    
_DMEY=  1.000000000000000    
_DMEZ=  1.000000000000000    
_DMNX=  1.000000000000000    
_DMNY=  1.000000000000000    
_DMNZ=  1.000000000000000    
_DMSCF=  1.000000000000000    
_DMSCF_Efield=  1.000000000000000    
_DMSCF_I=  1.000000000000000    
_DMSCF_J=  1.000000000000000    
_DMSCF_K=  1.000000000000000    
_DMSCF_N1=  1.000000000000000    
_DMSCF_N2=  1.000000000000000    
_DMSCF_NUC=  1.000000000000000    
_DMSCF_T=  1.000000000000000    
_DMSCF_V=  1.000000000000000    
_DMX=  0.000000000000000    
_DMY=  0.000000000000000    
_DMZ=  0.000000000000000    
_DMZCOR=  0.000000000000000    
_DM_RHO1=  0.000000000000000    
_DM_RVAL=  0.000000000000000    
_DUMMYATOMS=  0.000000000000000    
_FREQUENCIES= -1091.476841965175    
_EDISP= -1091.476841965175    
_EEDISP= -1091.476841965175    
_EINTRA= -1091.476841965175    
_EINTRA_R12= -1091.476841965175    
_EINTER_R12= -1091.476841965175    
_EIONIC= -1091.476841965175    
_EMP2= -113.7052096285454    
_EMP2_SING=-0.2340631724724195    
_EMP2_TRIP=-0.1447766019091954    
_EMP2_SINGLES=-0.1447766019091954    
_EMP2_SINGLES_D=-0.1447766019091954    
_EMP2_SCS=-0.1447766019091954    
_EMP2_STRONG=-0.1447766019091954    
_EMP2_CLOSE=-0.1447766019091954    
_EMP2_WEAK=-0.1447766019091954    
_EMP2_DIST=-0.1447766019091954    
_ECSING=-0.2696815084395947    
_ECTRIP=-0.1241467982671724    
_ECSINGLES=-0.2481009064858597E-08
_EF12=-0.2481009064858597E-08
_EF12_SING=-0.2481009064858597E-08
_EF12_TRIP=-0.2481009064858597E-08
_ECSING_F12=-0.2481009064858597E-08
_ECTRIP_F12=-0.2481009064858597E-08
_EF12_RHFRELAX=-0.2481009064858597E-08
_EF12_RHFRELAX_C=-0.2481009064858597E-08
_EF12_CONVSUPPRS=-0.2481009064858597E-08
_EF12_CONVSUPPRT=-0.2481009064858597E-08
_EF12_SINGLES=-0.2481009064858597E-08
_EF12_SINGLES_C=-0.2481009064858597E-08
_EF12_SCS=-0.2481009064858597E-08
_EF12_STRONG=-0.2481009064858597E-08
_EF12_CLOSE=-0.2481009064858597E-08
_EF12_WEAK=-0.2481009064858597E-08
_EF12_DIST=-0.2481009064858597E-08
_EF12S=-0.2481009064858597E-08
_EF12S_SING=-0.2481009064858597E-08
_EF12S_TRIP=-0.2481009064858597E-08
_EF12S_SCS=-0.2481009064858597E-08
_EF12S_STRONG=-0.2481009064858597E-08
_EF12S_CLOSE=-0.2481009064858597E-08
_EF12S_WEAK=-0.2481009064858597E-08
_EF12S_DIST=-0.2481009064858597E-08
_EF12D=-0.2481009064858597E-08
_EF12D_SING=-0.2481009064858597E-08
_EF12D_TRIP=-0.2481009064858597E-08
_EF12D_SCS=-0.2481009064858597E-08
_EF12D_STRONG=-0.2481009064858597E-08
_EF12D_CLOSE=-0.2481009064858597E-08
_EF12D_WEAK=-0.2481009064858597E-08
_EF12D_DIST=-0.2481009064858597E-08
_EF12F=-0.2481009064858597E-08
_EF12F_SING=-0.2481009064858597E-08
_EF12F_TRIP=-0.2481009064858597E-08
_EF12F_SCS=-0.2481009064858597E-08
_EF12F_STRONG=-0.2481009064858597E-08
_EF12F_CLOSE=-0.2481009064858597E-08
_EF12F_WEAK=-0.2481009064858597E-08
_EF12F_DIST=-0.2481009064858597E-08
_EMP2R12_2AD=-0.2481009064858597E-08
_EMP2R12_2A=-0.2481009064858597E-08
_EMP2R12_2AP=-0.2481009064858597E-08
_EMP2R12_2SAD=-0.2481009064858597E-08
_EMP2R12_2SA=-0.2481009064858597E-08
_EMP2R12_2SAP=-0.2481009064858597E-08
_EMP2R12_2B=-0.2481009064858597E-08
_EMP2_R12=-0.2481009064858597E-08
_EMP2_R12_A=-0.2481009064858597E-08
_EMP2_R12_AP=-0.2481009064858597E-08
_EMP2_R12_AD=-0.2481009064858597E-08
_EMP2_R12_2A=-0.2481009064858597E-08
_EMP2_R12_2SA=-0.2481009064858597E-08
_EMP2_R12_2SAP=-0.2481009064858597E-08
_EMP2_R12_2SAD=-0.2481009064858597E-08
_EMP2_R12_2AP=-0.2481009064858597E-08
_EMP2_R12_DIAG=-0.2481009064858597E-08
_EMP2_R12_STRONG=-0.2481009064858597E-08
_EMP2_R12_CLOSE=-0.2481009064858597E-08
_EMP2_R12_WEAK=-0.2481009064858597E-08
_EMP2_R12_DIST=-0.2481009064858597E-08
_EMP2_R12_SING=-0.2481009064858597E-08
_EMP2_R12_TRIP=-0.2481009064858597E-08
_EMP2_R12_SCS=-0.2481009064858597E-08
_EMP2R=-0.2481009064858597E-08
_EMP3=-0.2481009064858597E-08
_EMP3R=-0.2481009064858597E-08
_EMP4=-0.2481009064858597E-08
_ENERGC= -113.7201981633516    
_ENERGCL= -113.7201981633516    
_ENERG_CC=  0.000000000000000    
_ENERG_CV=  0.000000000000000    
_ENERG_VV=-0.3938283091877761    
_ENERGD=-0.3938283091877761    
_ENERGD0=-0.3938283091877761    
_ENERGD1=-0.3938283091877761    
_ENERGD2=-0.3938283091877761    
_ENERGD3=-0.3938283091877761    
_ENERGD4=-0.3938283091877761    
_ENERGP=-0.3938283091877761    
_ENERGP0=-0.3938283091877761    
_ENERGP1=-0.3938283091877761    
_ENERGP2=-0.3938283091877761    
_ENERGP3=-0.3938283091877761    
_ENERGP4=-0.3938283091877761    
_ENERGR= -113.3263698541638    
_ENERGRR= -113.3263698541638    
_ENERGS= -113.3263698541638    
_ENERGT= -113.7486441028437    
_ENERGU= -113.7486441028437    
_ENERGW= -113.7486441028437    
_ENERGY= -113.7486441028437    
_ENERGY_MP= -113.7486441028437    
_ECBS= -113.7486441028437    
_ECBSD= -113.7486441028437    
_ENUC=  40.70471165212797    
_EPDIST=  40.70471165212797    
_EPDIST_R12=  40.70471165212797    
_EPSUM=  40.70471165212797    
_EPSUM_R12=  40.70471165212797    
_EPS1=  40.70471165212797    
_EPS2=  40.70471165212797    
_EPS3=  40.70471165212797    
_EPS4=  40.70471165212797    
_EPS5=  40.70471165212797    
_EPS6=  40.70471165212797    
_EPS7=  40.70471165212797    
_EPS8=  40.70471165212797    
_EREL=  40.70471165212797    
_FLOPBLAS1=  40.70471165212797    
_FLOPBLAS2=  40.70471165212797    
_FLOPBLAS3=  40.70471165212797    
_FLOPDGM=  40.70471165212797    
_FLOPDGV=  40.70471165212797    
_FLOPMXM=  40.70471165212797    
_FLOPMXV=  40.70471165212797    
_FREQSTEP=  40.70471165212797    
!RS2GRSTATE=  40.70471165212797    
!RS2GRSYM=  40.70471165212797    
_GRADENERG= -113.7486440857298    
_GRADEXFAC=  9999.000000000000    
_GRADMETHOD=  0.000000000000000    
_GRADRECORD=  0.000000000000000    
_VIRIAL= 0.1716302175290698E-03
_GRADX= 0.1716302175290698E-03
_GRADY= 0.1716302175290698E-03
_GRADZ= 0.1716302175290698E-03
_GRADVAR= 0.1716302175290698E-03
_GRID= 0.1716302175290698E-03
_GRID_FREEZE= 0.1716302175290698E-03
!GRID_FREEZE= -1.000000000000000    
!GRIDREC= -1.000000000000000    
_GRID_WEIGHT_CUT= -1.000000000000000    
_GRID_BLOCKSIZE= -1.000000000000000    
_GRID_SPARSITY= -1.000000000000000    
_GRID_RMAX= -1.000000000000000    
_GTOTAL= -1.000000000000000    
_HDIA= -1.000000000000000    
_HDIACI= -1.000000000000000    
_HEAT= -1.000000000000000    
_HTOTAL= -1.000000000000000    
_INCR_CORR= -1.000000000000000    
_INCR_COUNT= -1.000000000000000    
_INCR_READY= -1.000000000000000    
_ISCHI= -1.000000000000000    
_ITERATIONS=  19.00000000000000    
_KFIT=  19.00000000000000    
_LASTNELEC=  18.00000000000000    
_LASTSPIN=  0.000000000000000    
_LASTSYM=  1.000000000000000    
_LL=  1.000000000000000    
_MASSV=  1.000000000000000    
_MIN_ITER=  1.000000000000000    
_MIXANG=  1.000000000000000    
_MIXANGCI=  1.000000000000000    
_MPP_PROG=  0.000000000000000    
_MSENERGY=  0.000000000000000    
_NACME=  0.000000000000000    
_NBAS_CFIT=  0.000000000000000    
_NEWREC=  0.000000000000000    
_NGRID=  0.000000000000000    
_NPROC_MPP=  1.000000000000000    
_NPROC_SMP=  1.000000000000000    
_NUMSTEP= 0.2170015762290606-314
_OPNUC= 0.2170015762290606-314
_OPTCONVMX= 0.8850674782134860E-04
_OPTCONVRMS= 0.7095652758661065E-04
_OPTGRAD= 0.1740205012317145E-03
_OPTGRADMX= 0.1517937788474176E-03
_OPTGRADRMS= 0.5800683374390482E-04
_OPTRMSMAX= 0.5800683374390482E-04
_OPTSTEP=  5.000000000000000    
_ORBITAL=  2100.200000000000    
_PAOINT_CFIT=  2100.200000000000    
_PENALTY=  2100.200000000000    
_PH1INT_CFIT=  2100.200000000000    
_PH1VEC_CFIT=  2100.200000000000    
_PH2INT_CFIT=  2100.200000000000    
_PHASE=  2100.200000000000    
_PI=  3.141592653589793    
_PMOINT_CFIT=  3.141592653589793    
_PMOVEC_CFIT=  3.141592653589793    
_POISSON_ECORR=  3.141592653589793    
_POISSON_ERROR=  3.141592653589793    
_POLXX=  3.141592653589793    
_POLXY=  3.141592653589793    
_POLXZ=  3.141592653589793    
_POLYY=  3.141592653589793    
_POLYZ=  3.141592653589793    
_POLZZ=  3.141592653589793    
_POLYX=  3.141592653589793    
_POLZX=  3.141592653589793    
_POLZY=  3.141592653589793    
_POVINT_CFIT=  3.141592653589793    
_ROOT=  3.141592653589793    
_RPDIST=  3.141592653589793    
_RPMIN=  3.141592653589793    
_RPMAX=  3.141592653589793    
_EPCON=  3.141592653589793    
_ECDIAG=-0.9747818789933391E-01
_EPDIAG=-0.9747818789933391E-01
!MCACT=-0.9747818789933391E-01
!MCCLOSED=-0.9747818789933391E-01
!MCFREEZE=-0.9747818789933391E-01
!MCMS2=-0.9747818789933391E-01
!MCNEL=-0.9747818789933391E-01
!MCNSTSYM=-0.9747818789933391E-01
!MCSTATE=-0.9747818789933391E-01
!MCSYM=-0.9747818789933391E-01
!MCWEIGHT=-0.9747818789933391E-01
_SEIG_MIN= 0.1057432987171195E-02
_SEWPROP=TRUE
_SMAT=TRUE
_SMATCI=TRUE
_SSQUARED=TRUE
_STATUS=  1.000000000000000    
_SYSBLAS1=  1.000000000000000    
_SYSBLAS2=  1.000000000000000    
_SYSBLAS3=  1.000000000000000    
_SYSTEM_RC=  1.000000000000000    
_SYSTOT=  16.25000000000000    
_T1DIAG= 0.2784568646619332E-01
_D1DIAG= 0.8360758316024745E-01
_TASK= 0.8360758316024745E-01
_TROV= 0.8360758316024745E-01
_HMAT= 0.8360758316024745E-01
_UMAT= 0.8360758316024745E-01
_UMATCI= 0.8360758316024745E-01
_VERSION=  2010001.000000000    
_WALLBLAS1=  2010001.000000000    
_WALLBLAS2=  2010001.000000000    
_WALLBLAS3=  2010001.000000000    
_WALLTOT=  851.3700000000000    
_ZPE= 0.6751930755448736E-02
!DFBASIS_COUL= 0.6751930755448736E-02
!DFBASIS_EXCH= 0.6751930755448736E-02
!DFBASIS_MP2= 0.6751930755448736E-02
!DFBASIS_F12K= 0.6751930755448736E-02
!DFBASIS_CCSD= 0.6751930755448736E-02
!RIBASIS_MP2= 0.6751930755448736E-02
!RIBASIS_EXCH= 0.6751930755448736E-02
_DATE=30-Nov-13
_LASTORB=RHF
_MACHINE=Linux-3.8.0-33-generic/pulgarcito(x86_64) 64 bit serial version
_METHODC=RCCSD
_METHODT=RCCSD(T)
_OUTPUT=/home/nestor/Dropbox/UAM/M3C/examples/neutralCarbonClusters/optGeom/tmpOptGeom-22963.out
_PGROUP=C2v
_SEMI=
_TIME=09:48:53
_ANSATZ=
_LIBMOL=/home/nestor/.molpro/bin/../lib/
_VDIAG=
_UDIAG=
!AOINTADDSC=
_TRANSFORM_FORCE=
_SOLVE_ITER=
_VSCF_FREQ=
_VMCSCF_FREQ=
_VCI_FREQ=
_VMP2_FREQ=
_VSCF_INTENS=
_VMCSCF_INTENS=
_VCI_INTENS=
_VMP2_INTENS=
!SURFREC=  0.000000000000000    
!POLYREC=  0.000000000000000    
!DIPREC=  0.000000000000000    
!VSCFREC=  0.000000000000000    
!VCIREC=  0.000000000000000    
!PVCIREC=  0.000000000000000    
!VMP2REC=  0.000000000000000    
!VMCSCFREC=  0.000000000000000    
!GAREC=  0.000000000000000    
!SCFORB=  21002.00000000000    
!MCORB=  21002.00000000000    
!CIOCC=  6.000000000000000    
!CICORE=  2.000000000000000    
!CICLOS=  6.000000000000000    
!UNO_OCC=  6.000000000000000    
!UNO_CLOSED=  6.000000000000000    
!CINSTSYM=  6.000000000000000    
!CIISTSYM=  1.000000000000000    
!CIISTMS2=  0.000000000000000    
!CIISTNEL=  12.00000000000000    
!CIMS2=  12.00000000000000    
!NEWMOL=  0.000000000000000    
!NEWSYM=  1.000000000000000    
!NEWORIENT=  1.000000000000000    
_SLFILES=slscratch
_NGSSTO=  9.000000000000000    
_SIN=SIN
_COS=COS
_TAN=TAN
_ACOS=ACOS
_ASIN=ASIN
_ATAN=ATAN
_COSH=COSH
_SINH=SINH
_TANH=TANH
_ABS=ABS
_MOD=MOD
_ERF=ERF
_REFC=REFC
_ERFC=ERFC
_HYPOT=HYPOT
_J0=J0
_J1=J1
_JN=JN
_GAMMA=GAMMA
_LGAMMA=LGAMMA
_Y0=Y0
_Y1=Y1
_YN=YN
_EXP=EXP
_LOG=LOG
_LOG10=LOG10
_SQRT=SQRT
_INT=INT
_NINT=NINT
_MAX=MAX
_MIN=MIN
_COSMO=  0.000000000000000    
_COSMOIT=  0.000000000000000    
_COSMOES=  0.000000000000000    
_COSMOEDS=  0.000000000000000    
_COSMOEC=  0.000000000000000    
_COSMOEDCORR=  0.000000000000000    
_FEPSI=  1.000000000000000    
_SL_IsMM=  0.000000000000000    
_SL_NSYM=  0.000000000000000    
_SL_System_BitSw=  0.000000000000000    
_SL_Unique_atoms=  0.000000000000000    
_SL_Last_energy=  0.000000000000000    
_SL_GRAD=  0.000000000000000    
_SL_MAXUPD_Hess=  5.000000000000000    
_SL_N_PRINT_COD=  5.000000000000000    
_SL_PRINT_CODES=  0.000000000000000    
_SL_BasType=  0.000000000000000    
_SL_Energy_Pred=  0.000000000000000    
_SL_New_Coords=  0.000000000000000    
_SL_Total_Nuclea=  0.000000000000000    
_SL_Highest_Mltp=  0.000000000000000    
_SL_Ref_Geom=  0.000000000000000    
_CONFIG=  0.000000000000000    
_OCC=  0.000000000000000    
_CORE=  0.000000000000000    
_CLOSED=  0.000000000000000    
_SCFOCC=  0.000000000000000    
_SCFCLOSED=  0.000000000000000    
_SCFCORE=  0.000000000000000    
_MCOCC=  0.000000000000000    
_MCCLOSED=  0.000000000000000    
_MCFROZEN=  0.000000000000000    
_MCCORE=  0.000000000000000    
_CIOCC=  0.000000000000000    
_CICLOSED=  0.000000000000000    
_CICORE=  0.000000000000000    
_CCOCC=  0.000000000000000    
_CCCLOSED=  0.000000000000000    
_CCCORE=  0.000000000000000    
_SRXC=  0.000000000000000    
_SRC=  0.000000000000000    
_SRX=  0.000000000000000    
_SRH=  0.000000000000000    
_E_EXCHANGE=  0.000000000000000    
!LATTICE= -1.000000000000000    
!NEWLATTICE=  0.000000000000000    
!LATGRAD_VAR=FALSE
!SEW_LATTICE=  1.000000000000000    
_LATGRADX=  1.000000000000000    
_LATGRADY=  1.000000000000000    
_LATGRADZ=  1.000000000000000    
!SCALTABINIT=  1.000000000000000    
!LOCAL=  0.000000000000000    
!SAVEOCC=  0.000000000000000    
!SAVEDOM= -1.000000000000000    
!RESTDOM= -1.000000000000000    
!SAVEDOM_HF= -1.000000000000000    
!RESTDOM_HF= -1.000000000000000    
!HESSREC=  5300.200000000000    
!FREQREC=  5400.200000000000    
!NMODREC=  5450.200000000000    
!GTASKS=  0.000000000000000    
!HTASKS=  5500.200000000000    
!THRCHG= 0.1000000000000000    
!DEBUG= -1.000000000000000    
!CFIT_CPHF=  0.000000000000000    
!RDOMAUX_CPHF=  5.000000000000000    
!THRAO_CPHF= 0.9999999999999999E-11
!THRMO_CPHF= 0.9999999999999999E-11
!THROV_CPHF= 0.1000000000000000E-11
!THRSW_CPHF= 0.1000000000000000E-09
!THRPROD_CPHF= 0.9999999999999999E-11
!THRAOPR_CPHF= 0.1000000000000000E-11
!CFIT_SCFGRD=  0.000000000000000    
!RDOMAUX_SCFGRD=  7.000000000000000    
!THRAO_SCFGRD= 0.9999999999999999E-11
!THRMO_SCFGRD= 0.9999999999999999E-11
!THROV_SCFGRD= 0.1000000000000000E-11
!THRSW_SCFGRD= 0.1000000000000000E-09
!THRPROD_SCFGRD= 0.9999999999999999E-11
!THRAOPR_SCFGRD= 0.1000000000000000E-11
!LOCFIT_SCF=  0.000000000000000    
!LOCFIT_MP2= -1.000000000000000    
_RIDOM=  0.000000000000000    
_FCI_METHOD=  0.000000000000000    
!CC2_METHOD=  0.000000000000000    
_BASIS2006=FALSE
_SVDDEL= -1.000000000000000    
_SVDDELA= -1.000000000000000    
_SVDDELP= -1.000000000000000    
_SVDDELF= -1.000000000000000    
_SVDDELS= -1.000000000000000    
_SVDDEL_ABS= -1.000000000000000    
_SVDDELA_ABS= -1.000000000000000    
_SVDDELP_ABS= -1.000000000000000    
_SVDDELF_ABS= -1.000000000000000    
_SVDDELS_ABS= -1.000000000000000    
_MAXBASIS=  0.000000000000000    
!OPT_CONICAL=  0.000000000000000    
!CLEARSP_JGRID=  0.000000000000000    
_SHLDTENSOR=  0.000000000000000    
_OMEGAF_S=  0.000000000000000    
_OMEGAF_T=  0.000000000000000    
_RE=  0.000000000000000    
_BE=  0.000000000000000    
_AE=  0.000000000000000    
_WE=  0.000000000000000    
_WEXE=  0.000000000000000    
_WEYE=  0.000000000000000    
_METHOD=  0.000000000000000    
_C0=  0.000000000000000    
_C0R=  0.000000000000000    
GX1=  0.000000000000000    
GY1= 0.6371734059286490    
GZ1=-0.4450221231447206    
GX2=  0.000000000000000    
GY2=  0.000000000000000    
GZ2= 0.8900432462894408    
GX3=  0.000000000000000    
GY3=-0.6371734059286490    
GZ3=-0.4450221231447206    
[Atoms] Angs
C     1    6         0.0000000000        0.6371734059       -0.4450221231
C     2    6         0.0000000000        0.0000000000        0.8900432463
C     3    6         0.0000000000       -0.6371734059       -0.4450221231
[GTO]
  1 0
 s    6  1.00
  0.4563240000D+04  0.1966650249D-02
  0.6820240000D+03  0.1523060193D-01
  0.1549730000D+03  0.7612690966D-01
  0.4445530000D+02  0.2608010331D+00
  0.1302900000D+02  0.6164620782D+00
  0.1827730000D+01  0.2210060280D+00
 s    3  1.00
  0.2096420000D+02  0.1146600807D+00
  0.4803310000D+01  0.9199996477D+00
  0.1459330000D+01 -0.3030682134D-02
 s    1  1.00
  0.4834560000D+00  0.1000000000D+01
 s    1  1.00
  0.1455850000D+00  0.1000000000D+01
 p    3  1.00
  0.2096420000D+02  0.4024869267D-01
  0.4803310000D+01  0.2375939567D+00
  0.1459330000D+01  0.8158538515D+00
 p    1  1.00
  0.4834560000D+00  0.1000000000D+01
 p    1  1.00
  0.1455850000D+00  0.1000000000D+01
 d    1  1.00
  0.1252000000D+01  0.1000000000D+01
 d    1  1.00
  0.3130000000D+00  0.1000000000D+01
  
  3 0
 s    6  1.00
  0.4563240000D+04  0.1966650249D-02
  0.6820240000D+03  0.1523060193D-01
  0.1549730000D+03  0.7612690966D-01
  0.4445530000D+02  0.2608010331D+00
  0.1302900000D+02  0.6164620782D+00
  0.1827730000D+01  0.2210060280D+00
 s    3  1.00
  0.2096420000D+02  0.1146600807D+00
  0.4803310000D+01  0.9199996477D+00
  0.1459330000D+01 -0.3030682134D-02
 s    1  1.00
  0.4834560000D+00  0.1000000000D+01
 s    1  1.00
  0.1455850000D+00  0.1000000000D+01
 p    3  1.00
  0.2096420000D+02  0.4024869267D-01
  0.4803310000D+01  0.2375939567D+00
  0.1459330000D+01  0.8158538515D+00
 p    1  1.00
  0.4834560000D+00  0.1000000000D+01
 p    1  1.00
  0.1455850000D+00  0.1000000000D+01
 d    1  1.00
  0.1252000000D+01  0.1000000000D+01
 d    1  1.00
  0.3130000000D+00  0.1000000000D+01
  
  2 0
 s    6  1.00
  0.4563240000D+04  0.1966650249D-02
  0.6820240000D+03  0.1523060193D-01
  0.1549730000D+03  0.7612690966D-01
  0.4445530000D+02  0.2608010331D+00
  0.1302900000D+02  0.6164620782D+00
  0.1827730000D+01  0.2210060280D+00
 s    3  1.00
  0.2096420000D+02  0.1146600807D+00
  0.4803310000D+01  0.9199996477D+00
  0.1459330000D+01 -0.3030682134D-02
 s    1  1.00
  0.4834560000D+00  0.1000000000D+01
 s    1  1.00
  0.1455850000D+00  0.1000000000D+01
 p    3  1.00
  0.2096420000D+02  0.4024869267D-01
  0.4803310000D+01  0.2375939567D+00
  0.1459330000D+01  0.8158538515D+00
 p    1  1.00
  0.4834560000D+00  0.1000000000D+01
 p    1  1.00
  0.1455850000D+00  0.1000000000D+01
 d    1  1.00
  0.1252000000D+01  0.1000000000D+01
 d    1  1.00
  0.3130000000D+00  0.1000000000D+01


[MO]
 Sym=      1.1
 Ene=     -11.4050
 Spin= Alpha
 Occup=    2.000000
1 0.002550078689538
2 0.001976542143223
3 0.000319502598463
4 0.002123742957372
5 0.0
6 0.000034621295782
7 0.000041177034835
8 0.0
9 -0.000316429058194
10 0.000860471971606
11 0.0
12 -0.000512136700582
13 0.001001418796733
14 -0.000085200179715
15 -0.000078801429391
16 0.000164001609106
17 0.0
18 0.0
19 -0.000141435573286
20 -0.000273700558936
21 -0.000039755749849
22 0.000313456308785
23 0.0
24 0.0
25 -0.000298159583581
26 0.002550078689538
27 0.001976542143223
28 0.000319502598463
29 0.002123742957372
30 0.0
31 -0.000034621295782
32 0.000041177034835
33 0.0
34 0.000316429058194
35 0.000860471971606
36 0.0
37 0.000512136700582
38 0.001001418796733
39 -0.000085200179715
40 -0.000078801429391
41 0.000164001609106
42 0.0
43 0.0
44 0.000141435573286
45 -0.000273700558936
46 -0.000039755749849
47 0.000313456308785
48 0.0
49 0.0
50 0.000298159583581
51 0.56385683823429
52 0.46699056530794
53 0.001612063836655
54 -0.004011995364052
55 0.0
56 0.0
57 -0.003501884143888
58 0.0
59 0.0
60 0.002335523257565
61 0.0
62 0.0
63 0.001571132643624
64 -0.000248216981630
65 -0.000212869038279
66 0.000461086019909
67 0.0
68 0.0
69 0.0
70 0.000483849182144
71 0.000087924228266
72 -0.000571773410410
73 0.0
74 0.0
75 0.0
 Sym=      2.1
 Ene=     -11.3194
 Spin= Alpha
 Occup=    2.000000
1 0.39827443664223
2 0.32984591796870
3 0.003035556909353
4 -0.000156606744864
5 0.0
6 -0.001179518590441
7 -0.000187036700168
8 0.0
9 -0.000300418444599
10 0.000378199338832
11 0.0
12 0.000193925259465
13 -0.000168228129447
14 -0.000369921176989
15 0.000505871204873
16 -0.000135950027884
17 0.0
18 0.0
19 -0.000042238929143
20 0.000071586731612
21 -0.000080623535469
22 0.000009036803857
23 0.0
24 0.0
25 0.000098287511957
26 0.39827443664223
27 0.32984591796870
28 0.003035556909353
29 -0.000156606744864
30 0.0
31 0.001179518590441
32 -0.000187036700168
33 0.0
34 0.000300418444599
35 0.000378199338832
36 0.0
37 -0.000193925259465
38 -0.000168228129447
39 -0.000369921176989
40 0.000505871204873
41 -0.000135950027884
42 0.0
43 0.0
44 0.000042238929143
45 0.000071586731612
46 -0.000080623535469
47 0.000009036803857
48 0.0
49 0.0
50 -0.000098287511957
51 -0.003758889553067
52 -0.003176285928933
53 0.000404893589495
54 -0.000007419895740
55 0.0
56 0.0
57 -0.000213443885166
58 0.0
59 0.0
60 -0.000123415410791
61 0.0
62 0.0
63 0.000126507090349
64 -0.000044647171437
65 -0.000046395815165
66 0.000091042986602
67 0.0
68 0.0
69 0.0
70 0.000198287503614
71 -0.000017807776678
72 -0.000180479726936
73 0.0
74 0.0
75 0.0
 Sym=      1.3
 Ene=     -11.3166
 Spin= Alpha
 Occup=    2.000000
1 0.39851115411299
2 0.33018751002535
3 0.002188533761298
4 -0.000493974157310
5 0.0
6 -0.000648305406794
7 -0.000189308693364
8 0.0
9 0.000177912967786
10 0.000505285102162
11 0.0
12 0.000278451492436
13 -0.000022292725942
14 -0.000244495522816
15 0.000304116393383
16 -0.000059620870567
17 0.0
18 0.0
19 -0.000082285112530
20 -0.000058028932530
21 0.000009078644273
22 0.000048950288258
23 0.0
24 0.0
25 -0.000025926567038
26 -0.39851115411299
27 -0.33018751002535
28 -0.002188533761298
29 0.000493974157310
30 0.0
31 -0.000648305406794
32 0.000189308693364
33 0.0
34 0.000177912967786
35 -0.000505285102162
36 0.0
37 0.000278451492436
38 0.000022292725942
39 0.000244495522816
40 -0.000304116393383
41 0.000059620870567
42 0.0
43 0.0
44 -0.000082285112530
45 0.000058028932530
46 -0.000009078644273
47 -0.000048950288258
48 0.0
49 0.0
50 -0.000025926567038
51 0.0
52 0.0
53 0.0
54 0.0
55 0.0
56 0.000060794518451
57 0.0
58 0.0
59 -0.000120154480155
60 0.0
61 0.0
62 -0.000052948789942
63 0.0
64 0.0
65 0.0
66 0.0
67 0.0
68 0.0
69 -0.000030309450430
70 0.0
71 0.0
72 0.0
73 0.0
74 0.0
75 0.000169088062796
 Sym=      3.1
 Ene=      -1.2611
 Spin= Alpha
 Occup=    2.000000
1 -0.072385662899612
2 -0.11860546947606
3 0.29188828980360
4 0.10774367863580
5 0.0
6 -0.078724665553952
7 0.033011543167750
8 0.0
9 -0.10329111524021
10 0.048494453604205
11 0.0
12 -0.025634710637407
13 0.012971903003258
14 -0.011027587548898
15 0.012012332063891
16 -0.000984744514994
17 0.0
18 0.0
19 -0.008361567267552
20 -0.012827231072961
21 0.011572869566460
22 0.001254361506501
23 0.0
24 0.0
25 -0.007966415604514
26 -0.072385662899612
27 -0.11860546947606
28 0.29188828980360
29 0.10774367863580
30 0.0
31 0.078724665553952
32 0.033011543167750
33 0.0
34 0.10329111524021
35 0.048494453604205
36 0.0
37 0.025634710637407
38 0.012971903003258
39 -0.011027587548898
40 0.012012332063891
41 -0.000984744514994
42 0.0
43 0.0
44 0.008361567267552
45 -0.012827231072961
46 0.011572869566460
47 0.001254361506501
48 0.0
49 0.0
50 0.007966415604514
51 -0.060083673573474
52 -0.099212920613662
53 0.26374762451882
54 0.085608143976437
55 0.0
56 0.0
57 -0.074971272946916
58 0.0
59 0.0
60 -0.11499868626569
61 0.0
62 0.0
63 -0.023520758647081
64 -0.009333755189005
65 -0.007447069220430
66 0.016780824409435
67 0.0
68 0.0
69 0.0
70 -0.011092032963449
71 -0.008857029956816
72 0.019949062920265
73 0.0
74 0.0
75 0.0
 Sym=      4.1
 Ene=      -0.7506
 Spin= Alpha
 Occup=    2.000000
1 0.037550346548567
2 0.063522605204299
3 -0.16896766399793
4 -0.14844570297930
5 0.0
6 0.082817158814688
7 0.098008264103645
8 0.0
9 0.12225629821880
10 0.15295028854895
11 0.0
12 0.055443948174853
13 0.049013885259837
14 0.003769332742260
15 -0.016472305889654
16 0.012702973147394
17 0.0
18 0.0
19 -0.013345901768172
20 0.004170044342604
21 -0.015371772384958
22 0.011201728042354
23 0.0
24 0.0
25 -0.017881329361613
26 0.037550346548567
27 0.063522605204299
28 -0.16896766399793
29 -0.14844570297930
30 0.0
31 -0.082817158814688
32 0.098008264103645
33 0.0
34 -0.12225629821880
35 0.15295028854895
36 0.0
37 -0.055443948174853
38 0.049013885259837
39 0.003769332742260
40 -0.016472305889654
41 0.012702973147394
42 0.0
43 0.0
44 0.013345901768172
45 0.004170044342604
46 -0.015371772384958
47 0.011201728042354
48 0.0
49 0.0
50 0.017881329361613
51 -0.087754440778249
52 -0.14954456757673
53 0.42482522933447
54 0.40018498017996
55 0.0
56 0.0
57 0.008210068876451
58 0.0
59 0.0
60 -0.006680945088765
61 0.0
62 0.0
63 -0.026570536055564
64 -0.003436909543061
65 0.001931838670186
66 0.001505070872875
67 0.0
68 0.0
69 0.0
70 -0.009818923001667
71 -0.000767757483482
72 0.010586680485149
73 0.0
74 0.0
75 0.0
 Sym=      2.3
 Ene=      -0.6446
 Spin= Alpha
 Occup=    2.000000
1 -0.070347430109827
2 -0.12042607974777
3 0.32844937326477
4 0.39386703186264
5 0.0
6 0.073674680328797
7 0.037967963131288
8 0.0
9 0.11114923883944
10 0.074208950694384